 Gaussian 09, Revision C.01,
 Gaussian 09:  EM64L-G09RevC.01 23-Sep-2011

 ---------------------------------------
 #p hf/3-21g nosymm iop( 3/33=1, 5/33=4)
 ---------------------------------------

 (Enter /share/home/srwang/g09/l101.exe)
 -----
 title
 -----
 Charge =  0 Multiplicity = 1

                          Input orientation:
 ---------------------------------------------------------------------
 Center     Atomic      Atomic             Coordinates (Angstroms)
 Number     Number       Type             X           Y           Z
 ---------------------------------------------------------------------
      1          1           0        0.000000    0.000000    0.000000
      2          1           0        0.000000    0.000000    2.000000
 ---------------------------------------------------------------------

 SCF Done:  E(RHF) = -0.907804966634     A.U. after    5 cycles

 Alpha  occ. eigenvalues --   -0.37070
 Alpha virt. eigenvalues --   -0.01127   1.14404   1.19426

 Mulliken atomic charges:
              1
     1  H   -0.000000
     2  H    0.000000
 Sum of Mulliken atomic charges =   0.00000

 Dipole moment (field-independent basis, Debye):
    X=              0.0000    Y=              0.0000    Z=              0.0000  Tot=              0.0000
 Quadrupole moment (field-independent basis, Debye-Ang):
   XX=             -2.7843   YY=             -2.7843   ZZ=             -1.2998
   XY=              0.0000   XZ=              0.0000   YZ=              0.0000

 Normal termination of Gaussian 09 at Mon Oct  5 19:50:24 2020.
