 Gaussian 09, Revision C.01,
 Gaussian 09:  EM64L-G09RevC.01 23-Sep-2011

 ----------------------------------------------------------------------
 #p uhf/3-21g nosymm guess=mix scf=conver=4 extralink=l530 iop(5/206=9,
  5/207=4, 5/216=0) pop=none
 ----------------------------------------------------------------------

 (Enter /share/home/srwang/g09/l101.exe)
 -----
 title
 -----
 Charge =  0 Multiplicity = 1

                          Input orientation:
 ---------------------------------------------------------------------
 Center     Atomic      Atomic             Coordinates (Angstroms)
 Number     Number       Type             X           Y           Z
 ---------------------------------------------------------------------
      1          1           0        0.000000    0.000000    0.000000
      2          1           0        0.000000    0.000000    2.000000
 ---------------------------------------------------------------------

 SCF Done:  E(UHF) = -0.997011480180     A.U. after    5 cycles
 Normal termination of Gaussian 09 at Fri Oct 23 20:24:39 2020.
