 Gaussian 09, Revision C.01,
 Gaussian 09:  EM64L-G09RevC.01 23-Sep-2011

 ------------------------------------------
 #p uhf/3-21g nosymm guess=mix scf=conver=4
 ------------------------------------------

 (Enter /share/home/srwang/g09/l101.exe)
 -----
 title
 -----
 Charge =  0 Multiplicity = 1

                          Input orientation:
 ---------------------------------------------------------------------
 Center     Atomic      Atomic             Coordinates (Angstroms)
 Number     Number       Type             X           Y           Z
 ---------------------------------------------------------------------
      1          7           0        0.000000    0.000000    0.000000
      2          7           0        0.000000    0.000000    2.000000
 ---------------------------------------------------------------------

 SCF Done:  E(UHF) =  -108.029728534     A.U. after   10 cycles

 Alpha  occ. eigenvalues --  -15.61491 -15.61426  -1.03584  -0.90972  -0.53069
 Alpha  occ. eigenvalues --   -0.53054  -0.41840
 Alpha virt. eigenvalues --    0.10006   0.12242   0.12256   1.24318   1.24320
 Alpha virt. eigenvalues --    1.42278   1.43447   1.44733   1.44735   1.81490
 Alpha virt. eigenvalues --    2.29118
  Beta  occ. eigenvalues --  -15.61491 -15.61426  -1.03584  -0.90972  -0.53069
  Beta  occ. eigenvalues --   -0.53054  -0.41840
  Beta virt. eigenvalues --    0.10006   0.12242   0.12256   1.24318   1.24320
  Beta virt. eigenvalues --    1.42278   1.43447   1.44733   1.44735   1.81490
  Beta virt. eigenvalues --    2.29118

 Mulliken atomic charges:
              1
     1  N   -0.000000
     2  N    0.000000
 Sum of Mulliken atomic charges =   0.00000

 Dipole moment (field-independent basis, Debye):
    X=             -0.0000    Y=              0.0000    Z=              0.0000  Tot=              0.0000
 Quadrupole moment (field-independent basis, Debye-Ang):
   XX=            -10.5576   YY=            -10.5576   ZZ=            -11.9696
   XY=             -0.0001   XZ=             -0.0000   YZ=              0.0000

 Normal termination of Gaussian 09 at Wed Oct 21 16:12:06 2020.
