 Gaussian 09, Revision C.01,
 Gaussian 09:  EM64L-G09RevC.01 23-Sep-2011

 ----------------------------------------------------------------------
 #p hf/3-21g scf=conver=4 extralink=l530 iop(5/206=9, 5/207=1, 5/216=1)
  pop=none
 ----------------------------------------------------------------------

 (Enter /share/home/srwang/g09/l101.exe)
 -----
 title
 -----
 Charge =  0 Multiplicity = 1

                         Standard orientation:
 ---------------------------------------------------------------------
 Center     Atomic      Atomic             Coordinates (Angstroms)
 Number     Number       Type             X           Y           Z
 ---------------------------------------------------------------------
      1          1           0        0.000000    0.000000    1.000000
      2          1           0        0.000000    0.000000   -1.000000
 ---------------------------------------------------------------------

 SCF Done:  E(RHF) = -0.907804966634     A.U. after    4 cycles
 Normal termination of Gaussian 09 at Sat Oct  3 15:42:38 2020.
